+ 5 /NodeList/0/DeviceList/0/$ns3::PointToPointNetDevice/TxQueue/Enqueue ns3::PppHeader (Point-to-Point Protocol: IP (0x0021)) ns3::Ipv4Header (tos 0x0 DSCP Default ECN Not-ECT ttl 64 id 0 protocol 6 offset (bytes) 0 flags [none] length: 48 10.0.0.1 > 10.0.0.2) ns3::TcpHeader (49153 > 80 [ SYN ] Seq=175 Ack=0 Win=65535 {OPT_MPC(1158056789)})
- 5 /NodeList/0/DeviceList/0/$ns3::PointToPointNetDevice/TxQueue/Dequeue ns3::PppHeader (Point-to-Point Protocol: IP (0x0021)) ns3::Ipv4Header (tos 0x0 DSCP Default ECN Not-ECT ttl 64 id 0 protocol 6 offset (bytes) 0 flags [none] length: 48 10.0.0.1 > 10.0.0.2) ns3::TcpHeader (49153 > 80 [ SYN ] Seq=175 Ack=0 Win=65535 {OPT_MPC(1158056789)})
r 5.00204 /NodeList/1/DeviceList/0/$ns3::PointToPointNetDevice/MacRx ns3::Ipv4Header (tos 0x0 DSCP Default ECN Not-ECT ttl 64 id 0 protocol 6 offset (bytes) 0 flags [none] length: 48 10.0.0.1 > 10.0.0.2) ns3::TcpHeader (49153 > 80 [ SYN ] Seq=175 Ack=0 Win=65535 {OPT_MPC(1158056789)})
+ 5.00204 /NodeList/1/DeviceList/0/$ns3::PointToPointNetDevice/TxQueue/Enqueue ns3::PppHeader (Point-to-Point Protocol: IP (0x0021)) ns3::Ipv4Header (tos 0x0 DSCP Default ECN Not-ECT ttl 64 id 0 protocol 6 offset (bytes) 0 flags [none] length: 48 10.0.0.2 > 10.0.0.1) ns3::TcpHeader (80 > 49153 [ SYN  ACK ] Seq=636 Ack=176 Win=65535 {OPT_MPC(1447788286)})
- 5.00204 /NodeList/1/DeviceList/0/$ns3::PointToPointNetDevice/TxQueue/Dequeue ns3::PppHeader (Point-to-Point Protocol: IP (0x0021)) ns3::Ipv4Header (tos 0x0 DSCP Default ECN Not-ECT ttl 64 id 0 protocol 6 offset (bytes) 0 flags [none] length: 48 10.0.0.2 > 10.0.0.1) ns3::TcpHeader (80 > 49153 [ SYN  ACK ] Seq=636 Ack=176 Win=65535 {OPT_MPC(1447788286)})
r 5.00408 /NodeList/0/DeviceList/0/$ns3::PointToPointNetDevice/MacRx ns3::Ipv4Header (tos 0x0 DSCP Default ECN Not-ECT ttl 64 id 0 protocol 6 offset (bytes) 0 flags [none] length: 48 10.0.0.2 > 10.0.0.1) ns3::TcpHeader (80 > 49153 [ SYN  ACK ] Seq=636 Ack=176 Win=65535 {OPT_MPC(1447788286)})
+ 5.00408 /NodeList/0/DeviceList/0/$ns3::PointToPointNetDevice/TxQueue/Enqueue ns3::PppHeader (Point-to-Point Protocol: IP (0x0021)) ns3::Ipv4Header (tos 0x0 DSCP Default ECN Not-ECT ttl 64 id 1 protocol 6 offset (bytes) 0 flags [none] length: 40 10.0.0.1 > 10.0.0.2) ns3::TcpHeader (49153 > 80 [ ACK ] Seq=176 Ack=637 Win=65535)
- 5.00408 /NodeList/0/DeviceList/0/$ns3::PointToPointNetDevice/TxQueue/Dequeue ns3::PppHeader (Point-to-Point Protocol: IP (0x0021)) ns3::Ipv4Header (tos 0x0 DSCP Default ECN Not-ECT ttl 64 id 1 protocol 6 offset (bytes) 0 flags [none] length: 40 10.0.0.1 > 10.0.0.2) ns3::TcpHeader (49153 > 80 [ ACK ] Seq=176 Ack=637 Win=65535)
+ 5.00408 /NodeList/0/DeviceList/0/$ns3::PointToPointNetDevice/TxQueue/Enqueue ns3::PppHeader (Point-to-Point Protocol: IP (0x0021)) ns3::Ipv4Header (tos 0x0 DSCP Default ECN Not-ECT ttl 64 id 2 protocol 6 offset (bytes) 0 flags [none] length: 52 10.0.0.1 > 10.0.0.2) ns3::TcpHeader (49153 > 80 [ ACK ] Seq=176 Ack=637 Win=65535 {OPT_ADDR} {OPT_ADDR})
+ 5.00408 /NodeList/0/DeviceList/0/$ns3::PointToPointNetDevice/TxQueue/Enqueue ns3::PppHeader (Point-to-Point Protocol: IP (0x0021)) ns3::Ipv4Header (tos 0x0 DSCP Default ECN Not-ECT ttl 64 id 3 protocol 6 offset (bytes) 0 flags [none] length: 258 10.0.0.1 > 10.0.0.2) ns3::TcpHeader (49153 > 80 Seq=176 Ack=637 Win=65535 {OPT_DSN}) Payload (size=198)
- 5.00411 /NodeList/0/DeviceList/0/$ns3::PointToPointNetDevice/TxQueue/Dequeue ns3::PppHeader (Point-to-Point Protocol: IP (0x0021)) ns3::Ipv4Header (tos 0x0 DSCP Default ECN Not-ECT ttl 64 id 2 protocol 6 offset (bytes) 0 flags [none] length: 52 10.0.0.1 > 10.0.0.2) ns3::TcpHeader (49153 > 80 [ ACK ] Seq=176 Ack=637 Win=65535 {OPT_ADDR} {OPT_ADDR})
- 5.00416 /NodeList/0/DeviceList/0/$ns3::PointToPointNetDevice/TxQueue/Dequeue ns3::PppHeader (Point-to-Point Protocol: IP (0x0021)) ns3::Ipv4Header (tos 0x0 DSCP Default ECN Not-ECT ttl 64 id 3 protocol 6 offset (bytes) 0 flags [none] length: 258 10.0.0.1 > 10.0.0.2) ns3::TcpHeader (49153 > 80 Seq=176 Ack=637 Win=65535 {OPT_DSN}) Payload (size=198)
r 5.00611 /NodeList/1/DeviceList/0/$ns3::PointToPointNetDevice/MacRx ns3::Ipv4Header (tos 0x0 DSCP Default ECN Not-ECT ttl 64 id 1 protocol 6 offset (bytes) 0 flags [none] length: 40 10.0.0.1 > 10.0.0.2) ns3::TcpHeader (49153 > 80 [ ACK ] Seq=176 Ack=637 Win=65535)
r 5.00616 /NodeList/1/DeviceList/0/$ns3::PointToPointNetDevice/MacRx ns3::Ipv4Header (tos 0x0 DSCP Default ECN Not-ECT ttl 64 id 2 protocol 6 offset (bytes) 0 flags [none] length: 52 10.0.0.1 > 10.0.0.2) ns3::TcpHeader (49153 > 80 [ ACK ] Seq=176 Ack=637 Win=65535 {OPT_ADDR} {OPT_ADDR})
+ 5.00616 /NodeList/1/DeviceList/0/$ns3::PointToPointNetDevice/TxQueue/Enqueue ns3::PppHeader (Point-to-Point Protocol: IP (0x0021)) ns3::Ipv4Header (tos 0x0 DSCP Default ECN Not-ECT ttl 64 id 1 protocol 6 offset (bytes) 0 flags [none] length: 52 10.0.0.2 > 10.0.0.1) ns3::TcpHeader (80 > 49153 [ ACK ] Seq=637 Ack=176 Win=65535 {OPT_ADDR} {OPT_ADDR})
- 5.00616 /NodeList/1/DeviceList/0/$ns3::PointToPointNetDevice/TxQueue/Dequeue ns3::PppHeader (Point-to-Point Protocol: IP (0x0021)) ns3::Ipv4Header (tos 0x0 DSCP Default ECN Not-ECT ttl 64 id 1 protocol 6 offset (bytes) 0 flags [none] length: 52 10.0.0.2 > 10.0.0.1) ns3::TcpHeader (80 > 49153 [ ACK ] Seq=637 Ack=176 Win=65535 {OPT_ADDR} {OPT_ADDR})
r 5.00636 /NodeList/1/DeviceList/0/$ns3::PointToPointNetDevice/MacRx ns3::Ipv4Header (tos 0x0 DSCP Default ECN Not-ECT ttl 64 id 3 protocol 6 offset (bytes) 0 flags [none] length: 258 10.0.0.1 > 10.0.0.2) ns3::TcpHeader (49153 > 80 Seq=176 Ack=637 Win=65535 {OPT_DSN}) Payload (size=198)
+ 5.00636 /NodeList/1/DeviceList/0/$ns3::PointToPointNetDevice/TxQueue/Enqueue ns3::PppHeader (Point-to-Point Protocol: IP (0x0021)) ns3::Ipv4Header (tos 0x0 DSCP Default ECN Not-ECT ttl 64 id 2 protocol 6 offset (bytes) 0 flags [none] length: 1460 10.0.0.2 > 10.0.0.1) ns3::TcpHeader (80 > 49153 Seq=637 Ack=374 Win=65535 {OPT_DSN}) Payload (size=1400)
- 5.00636 /NodeList/1/DeviceList/0/$ns3::PointToPointNetDevice/TxQueue/Dequeue ns3::PppHeader (Point-to-Point Protocol: IP (0x0021)) ns3::Ipv4Header (tos 0x0 DSCP Default ECN Not-ECT ttl 64 id 2 protocol 6 offset (bytes) 0 flags [none] length: 1460 10.0.0.2 > 10.0.0.1) ns3::TcpHeader (80 > 49153 Seq=637 Ack=374 Win=65535 {OPT_DSN}) Payload (size=1400)
+ 5.00636 /NodeList/1/DeviceList/0/$ns3::PointToPointNetDevice/TxQueue/Enqueue ns3::PppHeader (Point-to-Point Protocol: IP (0x0021)) ns3::Ipv4Header (tos 0x0 DSCP Default ECN Not-ECT ttl 64 id 3 protocol 6 offset (bytes) 0 flags [none] length: 40 10.0.0.2 > 10.0.0.1) ns3::TcpHeader (80 > 49153 [ ACK ] Seq=2037 Ack=374 Win=65535)
- 5.00753 /NodeList/1/DeviceList/0/$ns3::PointToPointNetDevice/TxQueue/Dequeue ns3::PppHeader (Point-to-Point Protocol: IP (0x0021)) ns3::Ipv4Header (tos 0x0 DSCP Default ECN Not-ECT ttl 64 id 3 protocol 6 offset (bytes) 0 flags [none] length: 40 10.0.0.2 > 10.0.0.1) ns3::TcpHeader (80 > 49153 [ ACK ] Seq=2037 Ack=374 Win=65535)
r 5.0082 /NodeList/0/DeviceList/0/$ns3::PointToPointNetDevice/MacRx ns3::Ipv4Header (tos 0x0 DSCP Default ECN Not-ECT ttl 64 id 1 protocol 6 offset (bytes) 0 flags [none] length: 52 10.0.0.2 > 10.0.0.1) ns3::TcpHeader (80 > 49153 [ ACK ] Seq=637 Ack=176 Win=65535 {OPT_ADDR} {OPT_ADDR})
+ 5.0082 /NodeList/0/DeviceList/1/$ns3::PointToPointNetDevice/TxQueue/Enqueue ns3::PppHeader (Point-to-Point Protocol: IP (0x0021)) ns3::Ipv4Header (tos 0x0 DSCP Default ECN Not-ECT ttl 64 id 4 protocol 6 offset (bytes) 0 flags [none] length: 48 10.0.1.1 > 10.0.1.2) ns3::TcpHeader (49153 > 80 [ SYN ] Seq=897 Ack=0 Win=65535 {OPT_JOIN})
- 5.0082 /NodeList/0/DeviceList/1/$ns3::PointToPointNetDevice/TxQueue/Dequeue ns3::PppHeader (Point-to-Point Protocol: IP (0x0021)) ns3::Ipv4Header (tos 0x0 DSCP Default ECN Not-ECT ttl 64 id 4 protocol 6 offset (bytes) 0 flags [none] length: 48 10.0.1.1 > 10.0.1.2) ns3::TcpHeader (49153 > 80 [ SYN ] Seq=897 Ack=0 Win=65535 {OPT_JOIN})
r 5.00953 /NodeList/0/DeviceList/0/$ns3::PointToPointNetDevice/MacRx ns3::Ipv4Header (tos 0x0 DSCP Default ECN Not-ECT ttl 64 id 2 protocol 6 offset (bytes) 0 flags [none] length: 1460 10.0.0.2 > 10.0.0.1) ns3::TcpHeader (80 > 49153 Seq=637 Ack=374 Win=65535 {OPT_DSN}) Payload (size=1400)
+ 5.00953 /NodeList/0/DeviceList/0/$ns3::PointToPointNetDevice/TxQueue/Enqueue ns3::PppHeader (Point-to-Point Protocol: IP (0x0021)) ns3::Ipv4Header (tos 0x0 DSCP Default ECN Not-ECT ttl 64 id 5 protocol 6 offset (bytes) 0 flags [none] length: 40 10.0.0.1 > 10.0.0.2) ns3::TcpHeader (49153 > 80 [ ACK ] Seq=374 Ack=2037 Win=65535)
- 5.00953 /NodeList/0/DeviceList/0/$ns3::PointToPointNetDevice/TxQueue/Dequeue ns3::PppHeader (Point-to-Point Protocol: IP (0x0021)) ns3::Ipv4Header (tos 0x0 DSCP Default ECN Not-ECT ttl 64 id 5 protocol 6 offset (bytes) 0 flags [none] length: 40 10.0.0.1 > 10.0.0.2) ns3::TcpHeader (49153 > 80 [ ACK ] Seq=374 Ack=2037 Win=65535)
r 5.00957 /NodeList/0/DeviceList/0/$ns3::PointToPointNetDevice/MacRx ns3::Ipv4Header (tos 0x0 DSCP Default ECN Not-ECT ttl 64 id 3 protocol 6 offset (bytes) 0 flags [none] length: 40 10.0.0.2 > 10.0.0.1) ns3::TcpHeader (80 > 49153 [ ACK ] Seq=2037 Ack=374 Win=65535)
r 5.01024 /NodeList/1/DeviceList/1/$ns3::PointToPointNetDevice/MacRx ns3::Ipv4Header (tos 0x0 DSCP Default ECN Not-ECT ttl 64 id 4 protocol 6 offset (bytes) 0 flags [none] length: 48 10.0.1.1 > 10.0.1.2) ns3::TcpHeader (49153 > 80 [ SYN ] Seq=897 Ack=0 Win=65535 {OPT_JOIN})
+ 5.01024 /NodeList/1/DeviceList/1/$ns3::PointToPointNetDevice/TxQueue/Enqueue ns3::PppHeader (Point-to-Point Protocol: IP (0x0021)) ns3::Ipv4Header (tos 0x0 DSCP Default ECN Not-ECT ttl 64 id 4 protocol 6 offset (bytes) 0 flags [none] length: 40 10.0.1.2 > 10.0.1.1) ns3::TcpHeader (80 > 49153 [ SYN  ACK ] Seq=486 Ack=898 Win=65535)
- 5.01024 /NodeList/1/DeviceList/1/$ns3::PointToPointNetDevice/TxQueue/Dequeue ns3::PppHeader (Point-to-Point Protocol: IP (0x0021)) ns3::Ipv4Header (tos 0x0 DSCP Default ECN Not-ECT ttl 64 id 4 protocol 6 offset (bytes) 0 flags [none] length: 40 10.0.1.2 > 10.0.1.1) ns3::TcpHeader (80 > 49153 [ SYN  ACK ] Seq=486 Ack=898 Win=65535)
r 5.01157 /NodeList/1/DeviceList/0/$ns3::PointToPointNetDevice/MacRx ns3::Ipv4Header (tos 0x0 DSCP Default ECN Not-ECT ttl 64 id 5 protocol 6 offset (bytes) 0 flags [none] length: 40 10.0.0.1 > 10.0.0.2) ns3::TcpHeader (49153 > 80 [ ACK ] Seq=374 Ack=2037 Win=65535)
+ 5.01157 /NodeList/1/DeviceList/0/$ns3::PointToPointNetDevice/TxQueue/Enqueue ns3::PppHeader (Point-to-Point Protocol: IP (0x0021)) ns3::Ipv4Header (tos 0x0 DSCP Default ECN Not-ECT ttl 64 id 5 protocol 6 offset (bytes) 0 flags [none] length: 1460 10.0.0.2 > 10.0.0.1) ns3::TcpHeader (80 > 49153 Seq=2037 Ack=374 Win=65535 {OPT_DSN}) Payload (size=1400)
- 5.01157 /NodeList/1/DeviceList/0/$ns3::PointToPointNetDevice/TxQueue/Dequeue ns3::PppHeader (Point-to-Point Protocol: IP (0x0021)) ns3::Ipv4Header (tos 0x0 DSCP Default ECN Not-ECT ttl 64 id 5 protocol 6 offset (bytes) 0 flags [none] length: 1460 10.0.0.2 > 10.0.0.1) ns3::TcpHeader (80 > 49153 Seq=2037 Ack=374 Win=65535 {OPT_DSN}) Payload (size=1400)
+ 5.01157 /NodeList/1/DeviceList/0/$ns3::PointToPointNetDevice/TxQueue/Enqueue ns3::PppHeader (Point-to-Point Protocol: IP (0x0021)) ns3::Ipv4Header (tos 0x0 DSCP Default ECN Not-ECT ttl 64 id 6 protocol 6 offset (bytes) 0 flags [none] length: 1460 10.0.0.2 > 10.0.0.1) ns3::TcpHeader (80 > 49153 Seq=3437 Ack=374 Win=65535 {OPT_DSN}) Payload (size=1400)
r 5.01227 /NodeList/0/DeviceList/1/$ns3::PointToPointNetDevice/MacRx ns3::Ipv4Header (tos 0x0 DSCP Default ECN Not-ECT ttl 64 id 4 protocol 6 offset (bytes) 0 flags [none] length: 40 10.0.1.2 > 10.0.1.1) ns3::TcpHeader (80 > 49153 [ SYN  ACK ] Seq=486 Ack=898 Win=65535)
+ 5.01227 /NodeList/0/DeviceList/1/$ns3::PointToPointNetDevice/TxQueue/Enqueue ns3::PppHeader (Point-to-Point Protocol: IP (0x0021)) ns3::Ipv4Header (tos 0x0 DSCP Default ECN Not-ECT ttl 64 id 6 protocol 6 offset (bytes) 0 flags [none] length: 40 10.0.1.1 > 10.0.1.2) ns3::TcpHeader (49153 > 80 [ ACK ] Seq=898 Ack=487 Win=65535)
- 5.01227 /NodeList/0/DeviceList/1/$ns3::PointToPointNetDevice/TxQueue/Dequeue ns3::PppHeader (Point-to-Point Protocol: IP (0x0021)) ns3::Ipv4Header (tos 0x0 DSCP Default ECN Not-ECT ttl 64 id 6 protocol 6 offset (bytes) 0 flags [none] length: 40 10.0.1.1 > 10.0.1.2) ns3::TcpHeader (49153 > 80 [ ACK ] Seq=898 Ack=487 Win=65535)
- 5.01274 /NodeList/1/DeviceList/0/$ns3::PointToPointNetDevice/TxQueue/Dequeue ns3::PppHeader (Point-to-Point Protocol: IP (0x0021)) ns3::Ipv4Header (tos 0x0 DSCP Default ECN Not-ECT ttl 64 id 6 protocol 6 offset (bytes) 0 flags [none] length: 1460 10.0.0.2 > 10.0.0.1) ns3::TcpHeader (80 > 49153 Seq=3437 Ack=374 Win=65535 {OPT_DSN}) Payload (size=1400)
r 5.01431 /NodeList/1/DeviceList/1/$ns3::PointToPointNetDevice/MacRx ns3::Ipv4Header (tos 0x0 DSCP Default ECN Not-ECT ttl 64 id 6 protocol 6 offset (bytes) 0 flags [none] length: 40 10.0.1.1 > 10.0.1.2) ns3::TcpHeader (49153 > 80 [ ACK ] Seq=898 Ack=487 Win=65535)
r 5.01474 /NodeList/0/DeviceList/0/$ns3::PointToPointNetDevice/MacRx ns3::Ipv4Header (tos 0x0 DSCP Default ECN Not-ECT ttl 64 id 5 protocol 6 offset (bytes) 0 flags [none] length: 1460 10.0.0.2 > 10.0.0.1) ns3::TcpHeader (80 > 49153 Seq=2037 Ack=374 Win=65535 {OPT_DSN}) Payload (size=1400)
+ 5.01474 /NodeList/0/DeviceList/0/$ns3::PointToPointNetDevice/TxQueue/Enqueue ns3::PppHeader (Point-to-Point Protocol: IP (0x0021)) ns3::Ipv4Header (tos 0x0 DSCP Default ECN Not-ECT ttl 64 id 7 protocol 6 offset (bytes) 0 flags [none] length: 40 10.0.0.1 > 10.0.0.2) ns3::TcpHeader (49153 > 80 [ ACK ] Seq=374 Ack=3437 Win=65535)
- 5.01474 /NodeList/0/DeviceList/0/$ns3::PointToPointNetDevice/TxQueue/Dequeue ns3::PppHeader (Point-to-Point Protocol: IP (0x0021)) ns3::Ipv4Header (tos 0x0 DSCP Default ECN Not-ECT ttl 64 id 7 protocol 6 offset (bytes) 0 flags [none] length: 40 10.0.0.1 > 10.0.0.2) ns3::TcpHeader (49153 > 80 [ ACK ] Seq=374 Ack=3437 Win=65535)
r 5.01591 /NodeList/0/DeviceList/0/$ns3::PointToPointNetDevice/MacRx ns3::Ipv4Header (tos 0x0 DSCP Default ECN Not-ECT ttl 64 id 6 protocol 6 offset (bytes) 0 flags [none] length: 1460 10.0.0.2 > 10.0.0.1) ns3::TcpHeader (80 > 49153 Seq=3437 Ack=374 Win=65535 {OPT_DSN}) Payload (size=1400)
+ 5.01591 /NodeList/0/DeviceList/0/$ns3::PointToPointNetDevice/TxQueue/Enqueue ns3::PppHeader (Point-to-Point Protocol: IP (0x0021)) ns3::Ipv4Header (tos 0x0 DSCP Default ECN Not-ECT ttl 64 id 8 protocol 6 offset (bytes) 0 flags [none] length: 40 10.0.0.1 > 10.0.0.2) ns3::TcpHeader (49153 > 80 [ ACK ] Seq=374 Ack=4837 Win=65535)
- 5.01591 /NodeList/0/DeviceList/0/$ns3::PointToPointNetDevice/TxQueue/Dequeue ns3::PppHeader (Point-to-Point Protocol: IP (0x0021)) ns3::Ipv4Header (tos 0x0 DSCP Default ECN Not-ECT ttl 64 id 8 protocol 6 offset (bytes) 0 flags [none] length: 40 10.0.0.1 > 10.0.0.2) ns3::TcpHeader (49153 > 80 [ ACK ] Seq=374 Ack=4837 Win=65535)
r 5.01677 /NodeList/1/DeviceList/0/$ns3::PointToPointNetDevice/MacRx ns3::Ipv4Header (tos 0x0 DSCP Default ECN Not-ECT ttl 64 id 7 protocol 6 offset (bytes) 0 flags [none] length: 40 10.0.0.1 > 10.0.0.2) ns3::TcpHeader (49153 > 80 [ ACK ] Seq=374 Ack=3437 Win=65535)
+ 5.01677 /NodeList/1/DeviceList/1/$ns3::PointToPointNetDevice/TxQueue/Enqueue ns3::PppHeader (Point-to-Point Protocol: IP (0x0021)) ns3::Ipv4Header (tos 0x0 DSCP Default ECN Not-ECT ttl 64 id 7 protocol 6 offset (bytes) 0 flags [none] length: 1460 10.0.1.2 > 10.0.1.1) ns3::TcpHeader (80 > 49153 Seq=487 Ack=898 Win=65535 {OPT_DSN}) Payload (size=1400)
- 5.01677 /NodeList/1/DeviceList/1/$ns3::PointToPointNetDevice/TxQueue/Dequeue ns3::PppHeader (Point-to-Point Protocol: IP (0x0021)) ns3::Ipv4Header (tos 0x0 DSCP Default ECN Not-ECT ttl 64 id 7 protocol 6 offset (bytes) 0 flags [none] length: 1460 10.0.1.2 > 10.0.1.1) ns3::TcpHeader (80 > 49153 Seq=487 Ack=898 Win=65535 {OPT_DSN}) Payload (size=1400)
+ 5.01677 /NodeList/1/DeviceList/0/$ns3::PointToPointNetDevice/TxQueue/Enqueue ns3::PppHeader (Point-to-Point Protocol: IP (0x0021)) ns3::Ipv4Header (tos 0x0 DSCP Default ECN Not-ECT ttl 64 id 8 protocol 6 offset (bytes) 0 flags [none] length: 1460 10.0.0.2 > 10.0.0.1) ns3::TcpHeader (80 > 49153 Seq=4837 Ack=374 Win=65535 {OPT_DSN}) Payload (size=1400)
- 5.01677 /NodeList/1/DeviceList/0/$ns3::PointToPointNetDevice/TxQueue/Dequeue ns3::PppHeader (Point-to-Point Protocol: IP (0x0021)) ns3::Ipv4Header (tos 0x0 DSCP Default ECN Not-ECT ttl 64 id 8 protocol 6 offset (bytes) 0 flags [none] length: 1460 10.0.0.2 > 10.0.0.1) ns3::TcpHeader (80 > 49153 Seq=4837 Ack=374 Win=65535 {OPT_DSN}) Payload (size=1400)
+ 5.01677 /NodeList/1/DeviceList/0/$ns3::PointToPointNetDevice/TxQueue/Enqueue ns3::PppHeader (Point-to-Point Protocol: IP (0x0021)) ns3::Ipv4Header (tos 0x0 DSCP Default ECN Not-ECT ttl 64 id 9 protocol 6 offset (bytes) 0 flags [none] length: 1460 10.0.0.2 > 10.0.0.1) ns3::TcpHeader (80 > 49153 Seq=6237 Ack=374 Win=65535 {OPT_DSN}) Payload (size=1400)
r 5.01794 /NodeList/1/DeviceList/0/$ns3::PointToPointNetDevice/MacRx ns3::Ipv4Header (tos 0x0 DSCP Default ECN Not-ECT ttl 64 id 8 protocol 6 offset (bytes) 0 flags [none] length: 40 10.0.0.1 > 10.0.0.2) ns3::TcpHeader (49153 > 80 [ ACK ] Seq=374 Ack=4837 Win=65535)
- 5.01794 /NodeList/1/DeviceList/0/$ns3::PointToPointNetDevice/TxQueue/Dequeue ns3::PppHeader (Point-to-Point Protocol: IP (0x0021)) ns3::Ipv4Header (tos 0x0 DSCP Default ECN Not-ECT ttl 64 id 9 protocol 6 offset (bytes) 0 flags [none] length: 1460 10.0.0.2 > 10.0.0.1) ns3::TcpHeader (80 > 49153 Seq=6237 Ack=374 Win=65535 {OPT_DSN}) Payload (size=1400)
+ 5.01794 /NodeList/1/DeviceList/0/$ns3::PointToPointNetDevice/TxQueue/Enqueue ns3::PppHeader (Point-to-Point Protocol: IP (0x0021)) ns3::Ipv4Header (tos 0x0 DSCP Default ECN Not-ECT ttl 64 id 10 protocol 6 offset (bytes) 0 flags [none] length: 1460 10.0.0.2 > 10.0.0.1) ns3::TcpHeader (80 > 49153 Seq=7637 Ack=374 Win=65535 {OPT_DSN}) Payload (size=1400)
+ 5.01794 /NodeList/1/DeviceList/0/$ns3::PointToPointNetDevice/TxQueue/Enqueue ns3::PppHeader (Point-to-Point Protocol: IP (0x0021)) ns3::Ipv4Header (tos 0x0 DSCP Default ECN Not-ECT ttl 64 id 11 protocol 6 offset (bytes) 0 flags [none] length: 1460 10.0.0.2 > 10.0.0.1) ns3::TcpHeader (80 > 49153 Seq=9037 Ack=374 Win=65535 {OPT_DSN}) Payload (size=1400)
- 5.01911 /NodeList/1/DeviceList/0/$ns3::PointToPointNetDevice/TxQueue/Dequeue ns3::PppHeader (Point-to-Point Protocol: IP (0x0021)) ns3::Ipv4Header (tos 0x0 DSCP Default ECN Not-ECT ttl 64 id 10 protocol 6 offset (bytes) 0 flags [none] length: 1460 10.0.0.2 > 10.0.0.1) ns3::TcpHeader (80 > 49153 Seq=7637 Ack=374 Win=65535 {OPT_DSN}) Payload (size=1400)
r 5.01994 /NodeList/0/DeviceList/1/$ns3::PointToPointNetDevice/MacRx ns3::Ipv4Header (tos 0x0 DSCP Default ECN Not-ECT ttl 64 id 7 protocol 6 offset (bytes) 0 flags [none] length: 1460 10.0.1.2 > 10.0.1.1) ns3::TcpHeader (80 > 49153 Seq=487 Ack=898 Win=65535 {OPT_DSN}) Payload (size=1400)
r 5.01994 /NodeList/0/DeviceList/0/$ns3::PointToPointNetDevice/MacRx ns3::Ipv4Header (tos 0x0 DSCP Default ECN Not-ECT ttl 64 id 8 protocol 6 offset (bytes) 0 flags [none] length: 1460 10.0.0.2 > 10.0.0.1) ns3::TcpHeader (80 > 49153 Seq=4837 Ack=374 Win=65535 {OPT_DSN}) Payload (size=1400)
+ 5.01994 /NodeList/0/DeviceList/1/$ns3::PointToPointNetDevice/TxQueue/Enqueue ns3::PppHeader (Point-to-Point Protocol: IP (0x0021)) ns3::Ipv4Header (tos 0x0 DSCP Default ECN Not-ECT ttl 64 id 9 protocol 6 offset (bytes) 0 flags [none] length: 40 10.0.1.1 > 10.0.1.2) ns3::TcpHeader (49153 > 80 [ ACK ] Seq=898 Ack=1887 Win=65535)
- 5.01994 /NodeList/0/DeviceList/1/$ns3::PointToPointNetDevice/TxQueue/Dequeue ns3::PppHeader (Point-to-Point Protocol: IP (0x0021)) ns3::Ipv4Header (tos 0x0 DSCP Default ECN Not-ECT ttl 64 id 9 protocol 6 offset (bytes) 0 flags [none] length: 40 10.0.1.1 > 10.0.1.2) ns3::TcpHeader (49153 > 80 [ ACK ] Seq=898 Ack=1887 Win=65535)
+ 5.01994 /NodeList/0/DeviceList/0/$ns3::PointToPointNetDevice/TxQueue/Enqueue ns3::PppHeader (Point-to-Point Protocol: IP (0x0021)) ns3::Ipv4Header (tos 0x0 DSCP Default ECN Not-ECT ttl 64 id 10 protocol 6 offset (bytes) 0 flags [none] length: 40 10.0.0.1 > 10.0.0.2) ns3::TcpHeader (49153 > 80 [ ACK ] Seq=374 Ack=6237 Win=65535)
- 5.01994 /NodeList/0/DeviceList/0/$ns3::PointToPointNetDevice/TxQueue/Dequeue ns3::PppHeader (Point-to-Point Protocol: IP (0x0021)) ns3::Ipv4Header (tos 0x0 DSCP Default ECN Not-ECT ttl 64 id 10 protocol 6 offset (bytes) 0 flags [none] length: 40 10.0.0.1 > 10.0.0.2) ns3::TcpHeader (49153 > 80 [ ACK ] Seq=374 Ack=6237 Win=65535)
- 5.02028 /NodeList/1/DeviceList/0/$ns3::PointToPointNetDevice/TxQueue/Dequeue ns3::PppHeader (Point-to-Point Protocol: IP (0x0021)) ns3::Ipv4Header (tos 0x0 DSCP Default ECN Not-ECT ttl 64 id 11 protocol 6 offset (bytes) 0 flags [none] length: 1460 10.0.0.2 > 10.0.0.1) ns3::TcpHeader (80 > 49153 Seq=9037 Ack=374 Win=65535 {OPT_DSN}) Payload (size=1400)
r 5.02111 /NodeList/0/DeviceList/0/$ns3::PointToPointNetDevice/MacRx ns3::Ipv4Header (tos 0x0 DSCP Default ECN Not-ECT ttl 64 id 9 protocol 6 offset (bytes) 0 flags [none] length: 1460 10.0.0.2 > 10.0.0.1) ns3::TcpHeader (80 > 49153 Seq=6237 Ack=374 Win=65535 {OPT_DSN}) Payload (size=1400)
+ 5.02111 /NodeList/0/DeviceList/0/$ns3::PointToPointNetDevice/TxQueue/Enqueue ns3::PppHeader (Point-to-Point Protocol: IP (0x0021)) ns3::Ipv4Header (tos 0x0 DSCP Default ECN Not-ECT ttl 64 id 11 protocol 6 offset (bytes) 0 flags [none] length: 40 10.0.0.1 > 10.0.0.2) ns3::TcpHeader (49153 > 80 [ ACK ] Seq=374 Ack=7637 Win=65535)
- 5.02111 /NodeList/0/DeviceList/0/$ns3::PointToPointNetDevice/TxQueue/Dequeue ns3::PppHeader (Point-to-Point Protocol: IP (0x0021)) ns3::Ipv4Header (tos 0x0 DSCP Default ECN Not-ECT ttl 64 id 11 protocol 6 offset (bytes) 0 flags [none] length: 40 10.0.0.1 > 10.0.0.2) ns3::TcpHeader (49153 > 80 [ ACK ] Seq=374 Ack=7637 Win=65535)
r 5.02197 /NodeList/1/DeviceList/1/$ns3::PointToPointNetDevice/MacRx ns3::Ipv4Header (tos 0x0 DSCP Default ECN Not-ECT ttl 64 id 9 protocol 6 offset (bytes) 0 flags [none] length: 40 10.0.1.1 > 10.0.1.2) ns3::TcpHeader (49153 > 80 [ ACK ] Seq=898 Ack=1887 Win=65535)
r 5.02197 /NodeList/1/DeviceList/0/$ns3::PointToPointNetDevice/MacRx ns3::Ipv4Header (tos 0x0 DSCP Default ECN Not-ECT ttl 64 id 10 protocol 6 offset (bytes) 0 flags [none] length: 40 10.0.0.1 > 10.0.0.2) ns3::TcpHeader (49153 > 80 [ ACK ] Seq=374 Ack=6237 Win=65535)
+ 5.02197 /NodeList/1/DeviceList/1/$ns3::PointToPointNetDevice/TxQueue/Enqueue ns3::PppHeader (Point-to-Point Protocol: IP (0x0021)) ns3::Ipv4Header (tos 0x0 DSCP Default ECN Not-ECT ttl 64 id 12 protocol 6 offset (bytes) 0 flags [none] length: 1460 10.0.1.2 > 10.0.1.1) ns3::TcpHeader (80 > 49153 Seq=1887 Ack=898 Win=65535 {OPT_DSN}) Payload (size=1400)
- 5.02197 /NodeList/1/DeviceList/1/$ns3::PointToPointNetDevice/TxQueue/Dequeue ns3::PppHeader (Point-to-Point Protocol: IP (0x0021)) ns3::Ipv4Header (tos 0x0 DSCP Default ECN Not-ECT ttl 64 id 12 protocol 6 offset (bytes) 0 flags [none] length: 1460 10.0.1.2 > 10.0.1.1) ns3::TcpHeader (80 > 49153 Seq=1887 Ack=898 Win=65535 {OPT_DSN}) Payload (size=1400)
+ 5.02197 /NodeList/1/DeviceList/1/$ns3::PointToPointNetDevice/TxQueue/Enqueue ns3::PppHeader (Point-to-Point Protocol: IP (0x0021)) ns3::Ipv4Header (tos 0x0 DSCP Default ECN Not-ECT ttl 64 id 13 protocol 6 offset (bytes) 0 flags [none] length: 1460 10.0.1.2 > 10.0.1.1) ns3::TcpHeader (80 > 49153 Seq=3287 Ack=898 Win=65535 {OPT_DSN}) Payload (size=1400)
+ 5.02197 /NodeList/1/DeviceList/0/$ns3::PointToPointNetDevice/TxQueue/Enqueue ns3::PppHeader (Point-to-Point Protocol: IP (0x0021)) ns3::Ipv4Header (tos 0x0 DSCP Default ECN Not-ECT ttl 64 id 14 protocol 6 offset (bytes) 0 flags [none] length: 1460 10.0.0.2 > 10.0.0.1) ns3::TcpHeader (80 > 49153 Seq=10437 Ack=374 Win=65535 {OPT_DSN}) Payload (size=1400)
- 5.02197 /NodeList/1/DeviceList/0/$ns3::PointToPointNetDevice/TxQueue/Dequeue ns3::PppHeader (Point-to-Point Protocol: IP (0x0021)) ns3::Ipv4Header (tos 0x0 DSCP Default ECN Not-ECT ttl 64 id 14 protocol 6 offset (bytes) 0 flags [none] length: 1460 10.0.0.2 > 10.0.0.1) ns3::TcpHeader (80 > 49153 Seq=10437 Ack=374 Win=65535 {OPT_DSN}) Payload (size=1400)
+ 5.02197 /NodeList/1/DeviceList/0/$ns3::PointToPointNetDevice/TxQueue/Enqueue ns3::PppHeader (Point-to-Point Protocol: IP (0x0021)) ns3::Ipv4Header (tos 0x0 DSCP Default ECN Not-ECT ttl 64 id 15 protocol 6 offset (bytes) 0 flags [none] length: 1460 10.0.0.2 > 10.0.0.1) ns3::TcpHeader (80 > 49153 Seq=11837 Ack=374 Win=65535 {OPT_DSN}) Payload (size=1400)
r 5.02228 /NodeList/0/DeviceList/0/$ns3::PointToPointNetDevice/MacRx ns3::Ipv4Header (tos 0x0 DSCP Default ECN Not-ECT ttl 64 id 10 protocol 6 offset (bytes) 0 flags [none] length: 1460 10.0.0.2 > 10.0.0.1) ns3::TcpHeader (80 > 49153 Seq=7637 Ack=374 Win=65535 {OPT_DSN}) Payload (size=1400)
+ 5.02228 /NodeList/0/DeviceList/0/$ns3::PointToPointNetDevice/TxQueue/Enqueue ns3::PppHeader (Point-to-Point Protocol: IP (0x0021)) ns3::Ipv4Header (tos 0x0 DSCP Default ECN Not-ECT ttl 64 id 12 protocol 6 offset (bytes) 0 flags [none] length: 40 10.0.0.1 > 10.0.0.2) ns3::TcpHeader (49153 > 80 [ ACK ] Seq=374 Ack=9037 Win=65535)
- 5.02228 /NodeList/0/DeviceList/0/$ns3::PointToPointNetDevice/TxQueue/Dequeue ns3::PppHeader (Point-to-Point Protocol: IP (0x0021)) ns3::Ipv4Header (tos 0x0 DSCP Default ECN Not-ECT ttl 64 id 12 protocol 6 offset (bytes) 0 flags [none] length: 40 10.0.0.1 > 10.0.0.2) ns3::TcpHeader (49153 > 80 [ ACK ] Seq=374 Ack=9037 Win=65535)
r 5.02314 /NodeList/1/DeviceList/0/$ns3::PointToPointNetDevice/MacRx ns3::Ipv4Header (tos 0x0 DSCP Default ECN Not-ECT ttl 64 id 11 protocol 6 offset (bytes) 0 flags [none] length: 40 10.0.0.1 > 10.0.0.2) ns3::TcpHeader (49153 > 80 [ ACK ] Seq=374 Ack=7637 Win=65535)
- 5.02314 /NodeList/1/DeviceList/1/$ns3::PointToPointNetDevice/TxQueue/Dequeue ns3::PppHeader (Point-to-Point Protocol: IP (0x0021)) ns3::Ipv4Header (tos 0x0 DSCP Default ECN Not-ECT ttl 64 id 13 protocol 6 offset (bytes) 0 flags [none] length: 1460 10.0.1.2 > 10.0.1.1) ns3::TcpHeader (80 > 49153 Seq=3287 Ack=898 Win=65535 {OPT_DSN}) Payload (size=1400)
- 5.02314 /NodeList/1/DeviceList/0/$ns3::PointToPointNetDevice/TxQueue/Dequeue ns3::PppHeader (Point-to-Point Protocol: IP (0x0021)) ns3::Ipv4Header (tos 0x0 DSCP Default ECN Not-ECT ttl 64 id 15 protocol 6 offset (bytes) 0 flags [none] length: 1460 10.0.0.2 > 10.0.0.1) ns3::TcpHeader (80 > 49153 Seq=11837 Ack=374 Win=65535 {OPT_DSN}) Payload (size=1400)
+ 5.02314 /NodeList/1/DeviceList/0/$ns3::PointToPointNetDevice/TxQueue/Enqueue ns3::PppHeader (Point-to-Point Protocol: IP (0x0021)) ns3::Ipv4Header (tos 0x0 DSCP Default ECN Not-ECT ttl 64 id 16 protocol 6 offset (bytes) 0 flags [none] length: 1460 10.0.0.2 > 10.0.0.1) ns3::TcpHeader (80 > 49153 Seq=13237 Ack=374 Win=65535 {OPT_DSN}) Payload (size=1400)
+ 5.02314 /NodeList/1/DeviceList/0/$ns3::PointToPointNetDevice/TxQueue/Enqueue ns3::PppHeader (Point-to-Point Protocol: IP (0x0021)) ns3::Ipv4Header (tos 0x0 DSCP Default ECN Not-ECT ttl 64 id 17 protocol 6 offset (bytes) 0 flags [none] length: 1460 10.0.0.2 > 10.0.0.1) ns3::TcpHeader (80 > 49153 Seq=14637 Ack=374 Win=65535 {OPT_DSN}) Payload (size=1400)
r 5.02345 /NodeList/0/DeviceList/0/$ns3::PointToPointNetDevice/MacRx ns3::Ipv4Header (tos 0x0 DSCP Default ECN Not-ECT ttl 64 id 11 protocol 6 offset (bytes) 0 flags [none] length: 1460 10.0.0.2 > 10.0.0.1) ns3::TcpHeader (80 > 49153 Seq=9037 Ack=374 Win=65535 {OPT_DSN}) Payload (size=1400)
+ 5.02345 /NodeList/0/DeviceList/0/$ns3::PointToPointNetDevice/TxQueue/Enqueue ns3::PppHeader (Point-to-Point Protocol: IP (0x0021)) ns3::Ipv4Header (tos 0x0 DSCP Default ECN Not-ECT ttl 64 id 13 protocol 6 offset (bytes) 0 flags [none] length: 40 10.0.0.1 > 10.0.0.2) ns3::TcpHeader (49153 > 80 [ ACK ] Seq=374 Ack=10437 Win=65535)
- 5.02345 /NodeList/0/DeviceList/0/$ns3::PointToPointNetDevice/TxQueue/Dequeue ns3::PppHeader (Point-to-Point Protocol: IP (0x0021)) ns3::Ipv4Header (tos 0x0 DSCP Default ECN Not-ECT ttl 64 id 13 protocol 6 offset (bytes) 0 flags [none] length: 40 10.0.0.1 > 10.0.0.2) ns3::TcpHeader (49153 > 80 [ ACK ] Seq=374 Ack=10437 Win=65535)
r 5.02431 /NodeList/1/DeviceList/0/$ns3::PointToPointNetDevice/MacRx ns3::Ipv4Header (tos 0x0 DSCP Default ECN Not-ECT ttl 64 id 12 protocol 6 offset (bytes) 0 flags [none] length: 40 10.0.0.1 > 10.0.0.2) ns3::TcpHeader (49153 > 80 [ ACK ] Seq=374 Ack=9037 Win=65535)
- 5.02431 /NodeList/1/DeviceList/0/$ns3::PointToPointNetDevice/TxQueue/Dequeue ns3::PppHeader (Point-to-Point Protocol: IP (0x0021)) ns3::Ipv4Header (tos 0x0 DSCP Default ECN Not-ECT ttl 64 id 16 protocol 6 offset (bytes) 0 flags [none] length: 1460 10.0.0.2 > 10.0.0.1) ns3::TcpHeader (80 > 49153 Seq=13237 Ack=374 Win=65535 {OPT_DSN}) Payload (size=1400)
+ 5.02431 /NodeList/1/DeviceList/0/$ns3::PointToPointNetDevice/TxQueue/Enqueue ns3::PppHeader (Point-to-Point Protocol: IP (0x0021)) ns3::Ipv4Header (tos 0x0 DSCP Default ECN Not-ECT ttl 64 id 18 protocol 6 offset (bytes) 0 flags [none] length: 1460 10.0.0.2 > 10.0.0.1) ns3::TcpHeader (80 > 49153 Seq=16037 Ack=374 Win=65535 {OPT_DSN}) Payload (size=1400)
+ 5.02431 /NodeList/1/DeviceList/0/$ns3::PointToPointNetDevice/TxQueue/Enqueue ns3::PppHeader (Point-to-Point Protocol: IP (0x0021)) ns3::Ipv4Header (tos 0x0 DSCP Default ECN Not-ECT ttl 64 id 19 protocol 6 offset (bytes) 0 flags [none] length: 1460 10.0.0.2 > 10.0.0.1) ns3::TcpHeader (80 > 49153 Seq=17437 Ack=374 Win=65535 {OPT_DSN}) Payload (size=1400)
r 5.02514 /NodeList/0/DeviceList/1/$ns3::PointToPointNetDevice/MacRx ns3::Ipv4Header (tos 0x0 DSCP Default ECN Not-ECT ttl 64 id 12 protocol 6 offset (bytes) 0 flags [none] length: 1460 10.0.1.2 > 10.0.1.1) ns3::TcpHeader (80 > 49153 Seq=1887 Ack=898 Win=65535 {OPT_DSN}) Payload (size=1400)